# vtk DataFile Version 3.0
Triangulation generated with deal.II
ASCII
DATASET UNSTRUCTURED_GRID
POINTS 682 double
-0.707107 -0.707107 0
0.707107 -0.707107 0
-0.292893 -0.292893 0
0.292893 -0.292893 0
-0.292893 0.292893 0
0.292893 0.292893 0
-0.707107 0.707107 0
0.707107 0.707107 0
0.5 -0.5 0
1 -1.11022e-16 0
0.292893 0 0
0.5 0.5 0
0.646447 -5.55112e-17 0
-1.11022e-16 -1 0
-0.5 -0.5 0
0 -0.292893 0
-0.292893 0 0
0 0.292893 0
-0.5 0.5 0
-1.11022e-16 1 0
0.603553 -0.603553 0
0.396447 -0.396447 0
0.92388 -0.382683 0
0.92388 0.382683 0
0.292893 -0.146447 0
0.292893 0.146447 0
0.603553 0.603553 0
0.396447 0.396447 0
0.823223 -8.32667e-17 0
0.46967 -2.77556e-17 0
0.573223 -0.25 0
0.573223 0.25 0
-5.55112e-17 -0.646447 0
0 0 0
-5.55112e-17 0.646447 0
0.748551 -0.316342 0
0.748551 0.316342 0
0.433058 -0.198223 0
0.433058 0.198223 0
0.382683 -0.92388 0
0.146447 -0.292893 0
0.146447 0.292893 0
0.382683 0.92388 0
0.65533 -0.65533 0
0.551777 -0.551777 0
0.448223 -0.448223 0
0.34467 -0.34467 0
0.83147 -0.55557 0
0.980785 -0.19509 0
0.980785 0.19509 0
0.83147 0.55557 0
0.292893 -0.21967 0
0.292893 -0.0732233 0
0.292893 0.0732233 0
0.292893 0.21967 0
0.65533 0.65533 0
0.551777 0.551777 0
0.448223 0.448223 0
0.34467 0.34467 0
0.911612 -9.71445e-17 0
0.734835 -6.93889e-17 0
0.558058 -4.16334e-17 0
0.381282 -1.38778e-17 0
0.536612 -0.375 0
0.609835 -0.125 0
0.609835 0.125 0
0.536612 0.375 0
-8.32667e-17 -0.823223 0
-2.77556e-17 -0.46967 0
0.25 -0.573223 0
0 -0.146447 0
0 0.146447 0
0.146447 0 0
0.25 0.573223 0
-8.32667e-17 0.823223 0
-2.77556e-17 0.46967 0
0.836215 -0.349513 0
0.660887 -0.283171 0
0.676052 -0.459948 0
0.785887 -0.158171 0
0.836215 0.349513 0
0.660887 0.283171 0
0.785887 0.158171 0
0.676052 0.459948 0
0.503141 -0.224112 0
0.362976 -0.172335 0
0.414752 -0.297335 0
0.451364 -0.0991117 0
0.503141 0.224112 0
0.362976 0.172335 0
0.451364 0.0991117 0
0.414752 0.297335 0
0.316342 -0.748551 0
0.198223 -0.433058 0
0.146447 -0.146447 0
0.146447 0.146447 0
0.316342 0.748551 0
0.198223 0.433058 0
0.753761 -0.507759 0
0.883336 -0.176631 0
0.606332 -0.417474 0
0.697861 -0.141585 0
0.883336 0.176631 0
0.753761 0.507759 0
0.697861 0.141585 0
0.606332 0.417474 0
0.475682 -0.336167 0
0.5306 -0.112056 0
0.353823 -0.258502 0
0.372129 -0.0861675 0
0.5306 0.112056 0
0.475682 0.336167 0
0.372129 0.0861675 0
0.353823 0.258502 0
-1 -1.11022e-16 0
-0.382683 -0.92388 0
-0.603553 -0.603553 0
-0.396447 -0.396447 0
-0.146447 -0.292893 0
-0.292893 -0.146447 0
-0.292893 0.146447 0
-0.146447 0.292893 0
-0.603553 0.603553 0
-0.396447 0.396447 0
-0.382683 0.92388 0
-0.25 -0.573223 0
-0.146447 0 0
-0.25 0.573223 0
0.19509 -0.980785 0
0.55557 -0.83147 0
0.0732233 -0.292893 0
0.21967 -0.292893 0
0.0732233 0.292893 0
0.21967 0.292893 0
0.19509 0.980785 0
0.55557 0.83147 0
0.681218 -0.681218 0
0.629442 -0.629442 0
0.577665 -0.577665 0
0.525888 -0.525888 0
0.474112 -0.474112 0
0.422335 -0.422335 0
0.370558 -0.370558 0
0.318782 -0.318782 0
0.77301 -0.634393 0
0.881921 -0.471397 0
0.95694 -0.290285 0
0.995185 -0.0980171 0
0.995185 0.0980171 0
0.95694 0.290285 0
0.881921 0.471397 0
0.77301 0.634393 0
0.292893 -0.256282 0
0.292893 -0.183058 0
0.292893 -0.109835 0
0.292893 -0.0366117 0
0.292893 0.0366117 0
0.292893 0.109835 0
0.292893 0.183058 0
0.292893 0.256282 0
0.681218 0.681218 0
0.629442 0.629442 0
0.577665 0.577665 0
0.525888 0.525888 0
0.474112 0.474112 0
0.422335 0.422335 0
0.370558 0.370558 0
0.318782 0.318782 0
0.955806 -1.04083e-16 0
0.867417 -9.02056e-17 0
0.779029 -7.63278e-17 0
0.690641 -6.245e-17 0
0.602252 -4.85723e-17 0
0.513864 -3.46945e-17 0
0.425476 -2.08167e-17 0
0.337087 -6.93889e-18 0
0.518306 -0.4375 0
0.554917 -0.3125 0
0.591529 -0.1875 0
0.628141 -0.0625 0
0.628141 0.0625 0
0.591529 0.1875 0
0.554917 0.3125 0
0.518306 0.4375 0
-9.71445e-17 -0.911612 0
-6.93889e-17 -0.734835 0
-4.16334e-17 -0.558058 0
-1.38778e-17 -0.381282 0
0.125 -0.609835 0
0.375 -0.536612 0
0 -0.21967 0
0 -0.0732233 0
0 0.0732233 0
0 0.21967 0
0.0732233 0 0
0.21967 0 0
0.125 0.609835 0
0.375 0.536612 0
-9.71445e-17 0.911612 0
-6.93889e-17 0.734835 0
-4.16334e-17 0.558058 0
-1.38778e-17 0.381282 0
0.880048 -0.366098 0
0.792383 -0.332927 0
0.704719 -0.299756 0
0.617055 -0.266585 0
0.639803 -0.53175 0
0.712302 -0.388145 0
0.767219 -0.237256 0
0.804555 -0.0790854 0
0.880048 0.366098 0
0.792383 0.332927 0
0.704719 0.299756 0
0.617055 0.266585 0
0.804555 0.0790854 0
0.767219 0.237256 0
0.712302 0.388145 0
0.639803 0.53175 0
0.538182 -0.237056 0
0.4681 -0.211167 0
0.398017 -0.185279 0
0.327934 -0.159391 0
0.4056 -0.346891 0
0.423905 -0.247779 0
0.442211 -0.148667 0
0.460517 -0.0495558 0
0.538182 0.237056 0
0.4681 0.211167 0
0.398017 0.185279 0
0.327934 0.159391 0
0.460517 0.0495558 0
0.442211 0.148667 0
0.423905 0.247779 0
0.4056 0.346891 0
0.349513 -0.836215 0
0.283171 -0.660887 0
0.158171 -0.785887 0
0.459948 -0.676052 0
0.224112 -0.503141 0
0.172335 -0.362976 0
0.0991117 -0.451364 0
0.297335 -0.414752 0
0.146447 -0.21967 0
0.146447 -0.0732233 0
0.0732233 -0.146447 0
0.21967 -0.146447 0
0.146447 0.0732233 0
0.146447 0.21967 0
0.0732233 0.146447 0
0.21967 0.146447 0
0.158171 0.785887 0
0.459948 0.676052 0
0.349513 0.836215 0
0.283171 0.660887 0
0.0991117 0.451364 0
0.297335 0.414752 0
0.224112 0.503141 0
0.172335 0.362976 0
0.792615 -0.531665 0
0.714907 -0.483853 0
0.704546 -0.581544 0
0.794988 -0.428636 0
0.932061 -0.18586 0
0.834612 -0.167401 0
0.859776 -0.263072 0
0.897474 -0.0883153 0
0.641192 -0.438711 0
0.571472 -0.396237 0
0.579054 -0.484625 0
0.63361 -0.350322 0
0.741874 -0.149878 0
0.653848 -0.133293 0
0.679374 -0.212378 0
0.716348 -0.0707927 0
0.932061 0.18586 0
0.834612 0.167401 0
0.897474 0.0883153 0
0.859776 0.263072 0
0.792615 0.531665 0
0.714907 0.483853 0
0.794988 0.428636 0
0.704546 0.581544 0
0.741874 0.149878 0
0.653848 0.133293 0
0.716348 0.0707927 0
0.679374 0.212378 0
0.641192 0.438711 0
0.571472 0.396237 0
0.63361 0.350322 0
0.579054 0.484625 0
0.506147 -0.355584 0
0.445217 -0.316751 0
0.461953 -0.392195 0
0.489411 -0.28014 0
0.570217 -0.118528 0
0.490982 -0.105584 0
0.51687 -0.168084 0
0.544329 -0.0560279 0
0.384288 -0.277919 0
0.323358 -0.239086 0
0.349246 -0.301586 0
0.358399 -0.215419 0
0.411746 -0.0926396 0
0.332511 -0.0796954 0
0.367552 -0.129251 0
0.376705 -0.0430837 0
0.570217 0.118528 0
0.490982 0.105584 0
0.544329 0.0560279 0
0.51687 0.168084 0
0.506147 0.355584 0
0.445217 0.316751 0
0.489411 0.28014 0
0.461953 0.392195 0
0.411746 0.0926396 0
0.332511 0.0796954 0
0.376705 0.0430837 0
0.367552 0.129251 0
0.384288 0.277919 0
0.323358 0.239086 0
0.358399 0.215419 0
0.349246 0.301586 0
-0.646447 -5.55112e-17 0
-0.316342 -0.748551 0
-0.198223 -0.433058 0
-0.146447 -0.146447 0
-0.146447 0.146447 0
-0.316342 0.748551 0
-0.198223 0.433058 0
0.176631 -0.883336 0
0.507759 -0.753761 0
0.141585 -0.697861 0
0.417474 -0.606332 0
0.112056 -0.5306 0
0.336167 -0.475682 0
0.0861675 -0.372129 0
0.258502 -0.353823 0
0.0732233 -0.21967 0
0.21967 -0.21967 0
0.0732233 -0.0732233 0
0.21967 -0.0732233 0
0.0732233 0.0732233 0
0.21967 0.0732233 0
0.0732233 0.21967 0
0.21967 0.21967 0
0.176631 0.883336 0
0.141585 0.697861 0
0.507759 0.753761 0
0.417474 0.606332 0
0.112056 0.5306 0
0.0861675 0.372129 0
0.336167 0.475682 0
0.258502 0.353823 0
0.738778 -0.607969 0
0.838455 -0.450016 0
0.672174 -0.556647 0
0.753645 -0.40839 0
0.908358 -0.276678 0
0.946329 -0.0931662 0
0.813498 -0.250164 0
0.851015 -0.0837004 0
0.609429 -0.508188 0
0.672956 -0.369233 0
0.54868 -0.461063 0
0.594264 -0.331411 0
0.723297 -0.224817 0
0.760452 -0.0749391 0
0.635452 -0.199939 0
0.672244 -0.0666464 0
0.946329 0.0931662 0
0.908358 0.276678 0
0.851015 0.0837004 0
0.813498 0.250164 0
0.838455 0.450016 0
0.738778 0.607969 0
0.753645 0.40839 0
0.672174 0.556647 0
0.760452 0.0749391 0
0.723297 0.224817 0
0.672244 0.0666464 0
0.635452 0.199939 0
0.672956 0.369233 0
0.609429 0.508188 0
0.594264 0.331411 0
0.54868 0.461063 0
0.490129 -0.414848 0
0.522164 -0.29632 0
0.433776 -0.369543 0
0.456658 -0.263959 0
0.5542 -0.177792 0
0.586235 -0.059264 0
0.479541 -0.158376 0
0.502423 -0.0527919 0
0.377423 -0.324238 0
0.391152 -0.231599 0
0.32107 -0.278934 0
0.325646 -0.199238 0
0.404882 -0.138959 0
0.418611 -0.0463198 0
0.330223 -0.119543 0
0.334799 -0.0398477 0
0.586235 0.059264 0
0.5542 0.177792 0
0.502423 0.0527919 0
0.479541 0.158376 0
0.522164 0.29632 0
0.490129 0.414848 0
0.456658 0.263959 0
0.433776 0.369543 0
0.418611 0.0463198 0
0.404882 0.138959 0
0.334799 0.0398477 0
0.330223 0.119543 0
0.391152 0.231599 0
0.377423 0.324238 0
0.325646 0.199238 0
0.32107 0.278934 0
-0.382683 -0.92388 0
-0.603553 -0.603553 0
0.603553 -0.603553 0
-0.146447 -0.292893 0
-0.292893 -0.146447 0
0.292893 -0.146447 0
-0.146447 0.292893 0
-0.603553 0.603553 0
-0.382683 0.92388 0
0.603553 0.603553 0
0.396447 -0.396447 0
0.573223 -0.25 0
0.92388 0.382683 0
0.823223 -8.32667e-17 0
0.292893 0.146447 0
0.396447 0.396447 0
0.46967 -2.77556e-17 0
0.573223 0.25 0
0.382683 -0.92388 0
-8.32667e-17 -0.823223 0
-0.396447 -0.396447 0
-0.25 -0.573223 0
0.146447 -0.292893 0
0 -0.146447 0
-0.292893 0.146447 0
-0.146447 0 0
0.146447 0.292893 0
-0.396447 0.396447 0
-0.25 0.573223 0
0.382683 0.92388 0
-8.32667e-17 0.823223 0
0.25 -0.573223 0
-2.77556e-17 -0.46967 0
0.146447 0 0
0 0.146447 0
0.25 0.573223 0
-2.77556e-17 0.46967 0
0.748551 0.316342 0
0.433058 -0.198223 0
0.433058 0.198223 0
-0.316342 -0.748551 0
0.316342 -0.748551 0
-0.198223 -0.433058 0
0.198223 -0.433058 0
-0.146447 -0.146447 0
0.146447 -0.146447 0
-0.146447 0.146447 0
0.146447 0.146447 0
-0.316342 0.748551 0
-0.198223 0.433058 0
0.316342 0.748551 0
0.198223 0.433058 0
0.292893 -0.0732233 0
0.65533 0.65533 0
0.551777 0.551777 0
0.980785 0.19509 0
0.83147 0.55557 0
0.911612 -9.71445e-17 0
0.734835 -6.93889e-17 0
0.292893 0.0732233 0
0.292893 0.21967 0
0.448223 0.448223 0
0.34467 0.34467 0
0.558058 -4.16334e-17 0
0.381282 -1.38778e-17 0
0.609835 0.125 0
0.536612 0.375 0
0.19509 -0.980785 0
-9.71445e-17 -0.911612 0
-6.93889e-17 -0.734835 0
0.0732233 -0.292893 0
0 -0.21967 0
[...]
CELL_DATA 668
SCALARS MaterialID int 1
LOOKUP_TABLE default
0 0 0 0 0 0 0 0 0 0 0 0 0 0 0 0 0 0 0 0 0 0 0 0 0 0 0 0 0 0 0 0 0 0 0 0 0 0 0 0 0 0 0 0 0 0 0 0 0 0 0 0 0 0 0 0 0 0 0 0 0 0 0 0 0 0 0 0 0 0 0 0 0 0 0 0 0 0 0 0 0 0 0 0 0 0 0 0 0 0 0 0 0 0 0 0 0 0 0 0 0 0 0 0 0 0 0 0 0 0 0 0 0 0 0 0 0 0 0 0 0 0 0 0 0 0 0 0 0 0 0 0 0 0 0 0 0 0 0 0 0 0 0 0 0 0 0 0 0 0 0 0 0 0 0 0 0 0 0 0 0 0 0 0 0 0 0 0 0 0 0 0 0 0 0 0 0 0 0 0 0 0 0 0 0 0 0 0 0 0 0 0 0 0 0 0 0 0 0 0 0 0 0 0 0 0 0 0 0 0 0 0 0 0 0 0 0 0 0 0 0 0 0 0 0 0 0 0 0 0 0 0 0 0 0 0 0 0 0 0 0 0 0 0 0 0 0 0 0 0 
0 -1 0 -1 -1 -1 0 0 0 0 0 0 -1 -1 -1 -1 -1 -1 -1 -1 -1 -1 -1 -1 -1 -1 -1 -1 -1 -1 -1 -1 -1 -1 -1 -1 0 0 -1 -1 -1 -1 0 0 0 0 -1 -1 -1 -1 -1 -1 -1 -1 -1 -1 -1 -1 -1 -1 -1 -1 -1 -1 -1 -1 -1 -1 -1 -1 -1 -1 -1 -1 -1 -1 -1 -1 -1 -1 -1 -1 -1 -1 -1 -1 -1 -1 -1 -1 -1 -1 -1 -1 -1 -1 -1 -1 -1 -1 -1 -1 -1 -1 -1 -1 -1 -1 -1 -1 -1 -1 -1 -1 -1 -1 -1 -1 -1 -1 -1 -1 -1 -1 -1 -1 -1 -1 -1 -1 -1 -1 -1 -1 -1 -1 -1 -1 -1 -1 -1 -1 -1 -1 -1 -1 0 0 -1 -1 0 0 0 0 0 0 0 0 0 0 0 0 0 0 0 0 -1 -1 -1 -1 -1 -1 -1 -1 -1 -1 -1 -1 -1 -1 -1 -1 -1 -1 -1 -1 -1 -1 -1 -1 -1 -1 -1 -1 -1 -1 -1 -1 -1 -1 -1 -1 -1 -1 -1 -1 -1 -1 -1 -1 -1 -1 -1 -1 -1 -1 -1 -1 -1 -1 -1 -1 -1 -1 -1 -1 -1 -1 -1 -1 -1 -1 -1 -1 -1 -1 -1 -1 -1 -1 -1 -1 -1 -1 -1 -1 -1 -1 -1 -1 -1 -1 -1 -1 -1 -1 -1 -1 -1 -1 -1 -1 -1 -1 -1 -1 -1 -1 -1 -1 -1 -1 -1 -1 -1 -1 -1 -1 -1 -1 -1 -1 -1 -1 -1 -1 -1 -1 -1 -1 -1 -1 -1 -1 -1 -1 -1 -1 -1 -1 -1 -1 -1 -1 -1 -1 -1 -1 -1 -1 -1 -1 -1 -1 -1 -1 -1 -1 -1 -1 -1 -1 -1 -1 -1 -1 -1 -1 -1 -1 -1 -1 -1 -1 -1 -1 -1 -1 -1 -1 -1 -1 -1 -1 -1 -1 -1 -1 -1 -1 -1 -1 -1 -1 -1 -1 -1 -1 -1 -1 -1 -1 -1 -1 -1 -1 -1 -1 -1 -1 -1 -1 -1 -1 -1 -1 -1 -1 -1 -1 -1 -1 -1 -1 -1 -1 -1 -1 -1 -1 -1 -1 -1 -1 -1 -1 -1 -1 -1 -1 -1 -1 -1 -1 -1 -1 -1 -1 -1 -1 -1 -1 -1 -1 -1 -1 -1 -1 


SCALARS ManifoldID int 1
LOOKUP_TABLE default
1 1 1 1 1 1 1 1 1 1 1 1 1 1 1 1 1 1 -1 -1 -1 -1 -1 -1 -1 -1 -1 1 1 1 1 1 1 1 1 1 1 1 1 1 1 1 1 1 1 1 1 1 1 1 1 1 1 1 -1 -1 -1 -1 -1 -1 -1 -1 -1 -1 -1 -1 -1 -1 -1 -1 -1 -1 -1 -1 -1 -1 -1 -1 -1 -1 -1 -1 1 1 1 1 1 1 1 1 1 1 1 1 1 1 1 1 1 1 1 1 1 1 1 1 1 1 1 1 1 1 1 1 1 1 1 1 1 1 1 1 1 1 1 1 1 1 1 1 1 1 1 1 1 1 1 1 1 1 1 1 1 1 1 1 1 1 1 1 1 1 1 1 1 1 1 1 1 1 1 1 1 1 1 1 1 1 1 1 1 1 1 1 1 1 1 1 1 1 1 1 1 1 1 1 1 1 1 1 1 1 1 1 1 1 1 1 1 1 1 1 1 1 1 1 1 1 1 1 1 1 1 1 1 1 1 1 1 1 1 1 1 1 1 1 1 1 1 1 1 1 1 1 1 1 1 1 1 1 1 1 1 1 1 1 1 1 1 1 
0 1 0 1 1 1 0 0 0 0 1 0 1 1 1 1 1 1 1 1 1 1 1 1 1 1 1 1 1 1 1 1 1 1 1 1 0 0 1 1 1 1 0 0 0 0 1 1 1 1 1 1 1 1 1 1 1 1 1 1 1 1 1 1 1 1 1 1 1 1 1 1 1 1 1 1 1 1 1 1 1 1 1 1 1 1 1 1 1 1 1 1 1 1 1 1 1 1 1 1 1 1 1 1 1 1 1 1 1 1 1 1 1 1 1 1 1 1 1 1 1 1 1 1 1 1 1 1 1 1 1 1 1 1 1 1 1 1 1 1 1 1 1 1 1 1 1 1 1 1 0 0 0 0 0 0 0 0 1 1 1 1 1 1 1 1 1 1 1 1 1 1 1 1 1 1 1 1 1 1 1 1 1 1 1 1 1 1 1 1 1 1 1 1 1 1 1 1 1 1 1 1 1 1 1 1 1 1 1 1 1 1 1 1 1 1 1 1 1 1 1 1 1 1 1 1 1 1 1 1 1 1 1 1 1 1 1 1 1 1 1 1 1 1 1 1 1 1 1 1 1 1 1 1 1 1 1 1 1 1 1 1 1 1 1 1 1 1 1 1 1 1 1 1 1 1 1 1 1 1 1 1 1 1 1 1 1 1 1 1 1 1 1 1 1 1 1 1 1 1 1 1 1 1 1 1 1 1 1 1 1 1 1 1 1 1 1 1 1 1 1 1 1 1 1 1 1 1 1 1 1 1 1 1 1 1 1 1 1 1 1 1 1 1 1 1 1 1 1 1 1 1 1 1 1 1 1 1 1 1 1 1 1 1 1 1 1 1 1 1 1 1 1 1 1 1 1 1 1 1 1 1 1 1 1 1 1 1 1 1 1 1 1 1 1 1 1 1 1 1 1 1 1 1 1 1 1 1 1 1 1 1 1 1 1 1 1 1 


# vtk DataFile Version 3.0
Triangulation generated with deal.II
ASCII
DATASET UNSTRUCTURED_GRID
POINTS 510 double
-0.707107 -0.707107 0
0.707107 -0.707107 0
-0.292893 -0.292893 0
0.292893 -0.292893 0
-0.292893 0.292893 0
0.292893 0.292893 0
-0.707107 0.707107 0
0.707107 0.707107 0
0.5 -0.5 0
1 -1.11022e-16 0
0.292893 0 0
0.5 0.5 0
0.646447 -5.55112e-17 0
-1.11022e-16 -1 0
-0.5 -0.5 0
0 -0.292893 0
-0.292893 0 0
0 0.292893 0
-0.5 0.5 0
-1.11022e-16 1 0
0.603553 -0.603553 0
0.396447 -0.396447 0
0.92388 -0.382683 0
0.92388 0.382683 0
0.292893 -0.146447 0
0.292893 0.146447 0
0.603553 0.603553 0
0.396447 0.396447 0
0.823223 -8.32667e-17 0
0.46967 -2.77556e-17 0
0.573223 -0.25 0
0.573223 0.25 0
-5.55112e-17 -0.646447 0
0 0 0
-5.55112e-17 0.646447 0
0.748551 -0.316342 0
0.748551 0.316342 0
0.433058 -0.198223 0
0.433058 0.198223 0
0.382683 -0.92388 0
0.146447 -0.292893 0
0.146447 0.292893 0
0.382683 0.92388 0
0.65533 -0.65533 0
0.551777 -0.551777 0
0.448223 -0.448223 0
0.34467 -0.34467 0
0.83147 -0.55557 0
0.980785 -0.19509 0
0.980785 0.19509 0
0.83147 0.55557 0
0.292893 -0.21967 0
0.292893 -0.0732233 0
0.292893 0.0732233 0
0.292893 0.21967 0
0.65533 0.65533 0
0.551777 0.551777 0
0.448223 0.448223 0
0.34467 0.34467 0
0.911612 -9.71445e-17 0
0.734835 -6.93889e-17 0
0.558058 -4.16334e-17 0
0.381282 -1.38778e-17 0
0.536612 -0.375 0
0.609835 -0.125 0
0.609835 0.125 0
0.536612 0.375 0
-8.32667e-17 -0.823223 0
-2.77556e-17 -0.46967 0
0.25 -0.573223 0
0 -0.146447 0
0 0.146447 0
0.146447 0 0
0.25 0.573223 0
-8.32667e-17 0.823223 0
-2.77556e-17 0.46967 0
0.836215 -0.349513 0
0.660887 -0.283171 0
0.676052 -0.459948 0
0.785887 -0.158171 0
0.836215 0.349513 0
0.660887 0.283171 0
0.785887 0.158171 0
0.676052 0.459948 0
0.503141 -0.224112 0
0.362976 -0.172335 0
0.414752 -0.297335 0
0.451364 -0.0991117 0
0.503141 0.224112 0
0.362976 0.172335 0
0.451364 0.0991117 0
0.414752 0.297335 0
0.316342 -0.748551 0
0.198223 -0.433058 0
0.146447 -0.146447 0
0.146447 0.146447 0
0.316342 0.748551 0
0.198223 0.433058 0
0.753761 -0.507759 0
0.883336 -0.176631 0
0.606332 -0.417474 0
0.697861 -0.141585 0
0.883336 0.176631 0
0.753761 0.507759 0
0.697861 0.141585 0
0.606332 0.417474 0
0.475682 -0.336167 0
0.5306 -0.112056 0
0.353823 -0.258502 0
0.372129 -0.0861675 0
0.5306 0.112056 0
0.475682 0.336167 0
0.372129 0.0861675 0
0.353823 0.258502 0
-1 -1.11022e-16 0
-0.382683 -0.92388 0
-0.603553 -0.603553 0
-0.396447 -0.396447 0
-0.146447 -0.292893 0
-0.292893 -0.146447 0
-0.292893 0.146447 0
-0.146447 0.292893 0
-0.603553 0.603553 0
-0.396447 0.396447 0
-0.382683 0.92388 0
-0.25 -0.573223 0
-0.146447 0 0
-0.25 0.573223 0
0.19509 -0.980785 0
0.55557 -0.83147 0
0.0732233 -0.292893 0
0.21967 -0.292893 0
0.0732233 0.292893 0
0.21967 0.292893 0
0.19509 0.980785 0
0.55557 0.83147 0
0.681218 -0.681218 0
0.629442 -0.629442 0
0.577665 -0.577665 0
0.525888 -0.525888 0
0.474112 -0.474112 0
0.422335 -0.422335 0
0.370558 -0.370558 0
0.318782 -0.318782 0
0.77301 -0.634393 0
0.881921 -0.471397 0
0.95694 -0.290285 0
0.995185 -0.0980171 0
0.995185 0.0980171 0
0.95694 0.290285 0
0.881921 0.471397 0
0.77301 0.634393 0
0.292893 -0.256282 0
0.292893 -0.183058 0
0.292893 -0.109835 0
0.292893 -0.0366117 0
0.292893 0.0366117 0
0.292893 0.109835 0
0.292893 0.183058 0
0.292893 0.256282 0
0.681218 0.681218 0
0.629442 0.629442 0
0.577665 0.577665 0
0.525888 0.525888 0
0.474112 0.474112 0
0.422335 0.422335 0
0.370558 0.370558 0
0.318782 0.318782 0
0.955806 -1.04083e-16 0
0.867417 -9.02056e-17 0
0.779029 -7.63278e-17 0
0.690641 -6.245e-17 0
0.602252 -4.85723e-17 0
0.513864 -3.46945e-17 0
0.425476 -2.08167e-17 0
0.337087 -6.93889e-18 0
0.518306 -0.4375 0
0.554917 -0.3125 0
0.591529 -0.1875 0
0.628141 -0.0625 0
0.628141 0.0625 0
0.591529 0.1875 0
0.554917 0.3125 0
0.518306 0.4375 0
-9.71445e-17 -0.911612 0
-6.93889e-17 -0.734835 0
-4.16334e-17 -0.558058 0
-1.38778e-17 -0.381282 0
0.125 -0.609835 0
0.375 -0.536612 0
0 -0.21967 0
0 -0.0732233 0
0 0.0732233 0
0 0.21967 0
0.0732233 0 0
0.21967 0 0
0.125 0.609835 0
0.375 0.536612 0
-9.71445e-17 0.911612 0
-6.93889e-17 0.734835 0
-4.16334e-17 0.558058 0
-1.38778e-17 0.381282 0
0.880048 -0.366098 0
0.792383 -0.332927 0
0.704719 -0.299756 0
0.617055 -0.266585 0
0.639803 -0.53175 0
0.712302 -0.388145 0
0.767219 -0.237256 0
0.804555 -0.0790854 0
0.880048 0.366098 0
0.792383 0.332927 0
0.704719 0.299756 0
0.617055 0.266585 0
0.804555 0.0790854 0
0.767219 0.237256 0
0.712302 0.388145 0
0.639803 0.53175 0
0.538182 -0.237056 0
0.4681 -0.211167 0
0.398017 -0.185279 0
0.327934 -0.159391 0
0.4056 -0.346891 0
0.423905 -0.247779 0
0.442211 -0.148667 0
0.460517 -0.0495558 0
0.538182 0.237056 0
0.4681 0.211167 0
0.398017 0.185279 0
0.327934 0.159391 0
0.460517 0.0495558 0
0.442211 0.148667 0
0.423905 0.247779 0
0.4056 0.346891 0
0.349513 -0.836215 0
0.283171 -0.660887 0
0.158171 -0.785887 0
0.459948 -0.676052 0
0.224112 -0.503141 0
0.172335 -0.362976 0
0.0991117 -0.451364 0
0.297335 -0.414752 0
0.146447 -0.21967 0
0.146447 -0.0732233 0
0.0732233 -0.146447 0
0.21967 -0.146447 0
0.146447 0.0732233 0
0.146447 0.21967 0
0.0732233 0.146447 0
0.21967 0.146447 0
0.158171 0.785887 0
0.459948 0.676052 0
0.349513 0.836215 0
0.283171 0.660887 0
0.0991117 0.451364 0
0.297335 0.414752 0
0.224112 0.503141 0
0.172335 0.362976 0
0.792615 -0.531665 0
0.714907 -0.483853 0
0.704546 -0.581544 0
0.794988 -0.428636 0
0.932061 -0.18586 0
0.834612 -0.167401 0
0.859776 -0.263072 0
0.897474 -0.0883153 0
0.641192 -0.438711 0
0.571472 -0.396237 0
0.579054 -0.484625 0
0.63361 -0.350322 0
0.741874 -0.149878 0
0.653848 -0.133293 0
0.679374 -0.212378 0
0.716348 -0.0707927 0
0.932061 0.18586 0
0.834612 0.167401 0
0.897474 0.0883153 0
0.859776 0.263072 0
0.792615 0.531665 0
0.714907 0.483853 0
0.794988 0.428636 0
0.704546 0.581544 0
0.741874 0.149878 0
0.653848 0.133293 0
0.716348 0.0707927 0
0.679374 0.212378 0
0.641192 0.438711 0
0.571472 0.396237 0
0.63361 0.350322 0
0.579054 0.484625 0
0.506147 -0.355584 0
0.445217 -0.316751 0
0.461953 -0.392195 0
0.489411 -0.28014 0
0.570217 -0.118528 0
0.490982 -0.105584 0
0.51687 -0.168084 0
0.544329 -0.0560279 0
0.384288 -0.277919 0
0.323358 -0.239086 0
0.349246 -0.301586 0
0.358399 -0.215419 0
0.411746 -0.0926396 0
0.332511 -0.0796954 0
0.367552 -0.129251 0
0.376705 -0.0430837 0
0.570217 0.118528 0
0.490982 0.105584 0
0.544329 0.0560279 0
0.51687 0.168084 0
0.506147 0.355584 0
0.445217 0.316751 0
0.489411 0.28014 0
0.461953 0.392195 0
0.411746 0.0926396 0
0.332511 0.0796954 0
0.376705 0.0430837 0
0.367552 0.129251 0
0.384288 0.277919 0
0.323358 0.239086 0
0.358399 0.215419 0
0.349246 0.301586 0
-0.646447 -5.55112e-17 0
-0.316342 -0.748551 0
-0.198223 -0.433058 0
-0.146447 -0.146447 0
-0.146447 0.146447 0
-0.316342 0.748551 0
-0.198223 0.433058 0
0.176631 -0.883336 0
0.507759 -0.753761 0
0.141585 -0.697861 0
0.417474 -0.606332 0
0.112056 -0.5306 0
0.336167 -0.475682 0
0.0861675 -0.372129 0
0.258502 -0.353823 0
0.0732233 -0.21967 0
0.21967 -0.21967 0
0.0732233 -0.0732233 0
0.21967 -0.0732233 0
0.0732233 0.0732233 0
0.21967 0.0732233 0
0.0732233 0.21967 0
0.21967 0.21967 0
0.176631 0.883336 0
0.141585 0.697861 0
0.507759 0.753761 0
0.417474 0.606332 0
0.112056 0.5306 0
0.0861675 0.372129 0
0.336167 0.475682 0
0.258502 0.353823 0
0.738778 -0.607969 0
0.838455 -0.450016 0
0.672174 -0.556647 0
0.753645 -0.40839 0
0.908358 -0.276678 0
0.946329 -0.0931662 0
0.813498 -0.250164 0
0.851015 -0.0837004 0
0.609429 -0.508188 0
0.672956 -0.369233 0
0.54868 -0.461063 0
0.594264 -0.331411 0
0.723297 -0.224817 0
0.760452 -0.0749391 0
0.635452 -0.199939 0
0.672244 -0.0666464 0
0.946329 0.0931662 0
0.908358 0.276678 0
0.851015 0.0837004 0
0.813498 0.250164 0
0.838455 0.450016 0
0.738778 0.607969 0
0.753645 0.40839 0
0.672174 0.556647 0
0.760452 0.0749391 0
0.723297 0.224817 0
0.672244 0.0666464 0
0.635452 0.199939 0
0.672956 0.369233 0
0.609429 0.508188 0
0.594264 0.331411 0
0.54868 0.461063 0
0.490129 -0.414848 0
0.522164 -0.29632 0
0.433776 -0.369543 0
0.456658 -0.263959 0
0.5542 -0.177792 0
0.586235 -0.059264 0
0.479541 -0.158376 0
0.502423 -0.0527919 0
0.377423 -0.324238 0
0.391152 -0.231599 0
0.32107 -0.278934 0
0.325646 -0.199238 0
0.404882 -0.138959 0
0.418611 -0.0463198 0
0.330223 -0.119543 0
0.334799 -0.0398477 0
0.586235 0.059264 0
0.5542 0.177792 0
0.502423 0.0527919 0
0.479541 0.158376 0
0.522164 0.29632 0
0.490129 0.414848 0
0.456658 0.263959 0
0.433776 0.369543 0
0.418611 0.0463198 0
0.404882 0.138959 0
0.334799 0.0398477 0
0.330223 0.119543 0
0.391152 0.231599 0
0.377423 0.324238 0
0.325646 0.199238 0
0.32107 0.278934 0
-0.382683 -0.92388 0
-0.603553 -0.603553 0
0.603553 -0.603553 0
-0.146447 -0.292893 0
-0.292893 -0.146447 0
0.292893 -0.146447 0
-0.146447 0.292893 0
-0.603553 0.603553 0
-0.382683 0.92388 0
0.603553 0.603553 0
0.396447 -0.396447 0
0.292893 0.146447 0
0.396447 0.396447 0
0.382683 -0.92388 0
-8.32667e-17 -0.823223 0
-0.396447 -0.396447 0
-0.25 -0.573223 0
0.146447 -0.292893 0
0 -0.146447 0
-0.292893 0.146447 0
-0.146447 0 0
0.146447 0.292893 0
-0.396447 0.396447 0
-0.25 0.573223 0
0.382683 0.92388 0
-8.32667e-17 0.823223 0
0.25 -0.573223 0
-2.77556e-17 -0.46967 0
0.146447 0 0
0 0.146447 0
0.25 0.573223 0
-2.77556e-17 0.46967 0
-0.316342 -0.748551 0
0.316342 -0.748551 0
-0.198223 -0.433058 0
0.198223 -0.433058 0
-0.146447 -0.146447 0
0.146447 -0.146447 0
-0.146447 0.146447 0
0.146447 0.146447 0
-0.316342 0.748551 0
-0.198223 0.433058 0
0.316342 0.748551 0
0.198223 0.433058 0
0.19509 -0.980785 0
-9.71445e-17 -0.911612 0
-6.93889e-17 -0.734835 0
0.0732233 -0.292893 0
0 -0.21967 0
0 -0.0732233 0
0.0732233 0.292893 0
0.19509 0.980785 0
-9.71445e-17 0.911612 0
-6.93889e-17 0.734835 0
0.125 -0.609835 0
-4.16334e-17 -0.558058 0
-1.38778e-17 -0.381282 0
0.0732233 0 0
0 0.0732233 0
0 0.21967 0
0.125 0.609835 0
-4.16334e-17 0.558058 0
-1.38778e-17 0.381282 0
0.349513 -0.836215 0
0.283171 -0.660887 0
0.158171 -0.785887 0
0.224112 -0.503141 0
0.172335 -0.362976 0
0.0991117 -0.451364 0
0.146447 -0.21967 0
0.146447 -0.0732233 0
0.0732233 -0.146447 0
0.146447 0.0732233 0
0.146447 0.21967 0
0.0732233 0.146447 0
0.158171 0.785887 0
0.349513 0.836215 0
0.283171 0.660887 0
0.0991117 0.451364 0
0.224112 0.503141 0
0.172335 0.362976 0
0.176631 -0.883336 0
0.141585 -0.697861 0
0.112056 -0.5306 0
0.0861675 -0.372129 0
0.0732233 -0.21967 0
0.0732233 -0.0732233 0
0.0732233 0.0732233 0
0.0732233 0.21967 0
0.176631 0.883336 0
0.141585 0.697861 0
0.112056 0.5306 0
0.0861675 0.372129 0

CELLS 206 794
4 0 14 322 114
4 14 2 16 322
4 114 322 18 6
4 322 16 4 18
4 0 417 449 418
4 417 13 431 449
4 418 449 433 14
4 449 431 32 433
4 430 1 419 450
4 450 419 8 443
4 14 433 451 432
4 433 32 444 451
4 432 451 420 2
4 451 444 15 420
4 443 8 427 452
4 452 427 3 434
4 2 420 453 421
4 420 15 435 453
4 421 453 437 16
4 453 435 33 437
4 434 3 422 454
4 454 422 10 445
4 16 437 455 436
4 437 33 446 455
4 436 455 423 4
4 455 446 17 423
4 445 10 428 456
4 456 428 5 438
4 6 424 457 425
4 424 18 440 457
4 425 457 442 19
4 457 440 34 442
4 18 439 458 440
4 439 4 423 458
4 440 458 448 34
4 458 423 17 448
4 441 459 426 7
4 459 447 11 426
4 447 460 429 11
4 460 438 5 429
4 13 461 498 462
4 461 430 480 498
4 462 498 482 431
4 498 480 450 482
4 431 482 499 463
4 482 450 481 499
4 463 499 471 32
4 499 481 443 471
4 32 471 500 472
4 471 443 483 500
4 472 500 485 444
4 500 483 452 485
4 444 485 501 473
4 485 452 484 501
4 473 501 464 15
4 501 484 434 464
4 15 464 502 465
4 464 434 486 502
4 465 502 488 435
4 502 486 454 488
4 435 488 503 466
4 488 454 487 503
4 466 503 474 33
4 503 487 445 474
4 33 474 504 475
4 474 445 489 504
4 475 504 491 446
4 504 489 456 491
4 446 491 505 476
4 491 456 490 505
4 476 505 467 17
4 505 490 438 467
4 19 469 506 468
4 469 442 492 506
4 468 506 493 441
4 506 492 459 493
4 442 470 507 492
4 470 34 477 507
4 492 507 494 459
4 507 477 447 494
4 34 478 508 477
4 478 448 495 508
4 477 508 496 447
4 508 495 460 496
4 448 479 509 495
4 479 17 467 509
4 495 509 497 460
4 509 467 438 497
2 0 114
2 14 322
2 114 6
2 114 322
2 322 16
2 322 18
2 0 417
2 417 13
2 6 425
2 425 19
2 430 1
2 14 433
2 433 32
2 18 440
2 440 34
2 441 7
2 443 8
2 447 11
2 417 449
2 449 433
2 418 449
2 449 431
2 450 419
2 433 451
2 451 420
2 432 451
2 451 444
2 452 427
2 424 457
2 457 442
2 425 457
2 457 440
2 439 458
2 458 448
2 440 458
2 458 423
2 459 426
2 460 429
2 13 461
2 461 430
2 13 462
2 462 431
2 431 463
2 463 32
2 19 468
2 468 441
2 19 469
2 469 442
2 442 470
2 470 34
2 32 471
2 471 443
2 32 472
2 472 444
2 444 473
2 473 15
2 34 477
2 477 447
2 34 478
2 478 448
2 448 479
2 479 17
2 430 480
2 480 450
2 450 481
2 481 443
2 431 482
2 482 450
2 443 483
2 483 452
2 452 484
2 484 434
2 444 485
2 485 452
2 442 492
2 492 459
2 441 493
2 493 459
2 459 494
2 494 447
2 448 495
2 495 460
2 447 496
2 496 460
2 460 497
2 497 438
2 461 498
2 498 482
2 462 498
2 498 480
2 482 499
2 499 471
2 463 499
2 499 481
2 471 500
2 500 485
2 472 500
2 500 483
2 485 501
2 501 464
2 473 501
2 501 484
2 469 506
2 506 493
2 468 506
2 506 492
2 470 507
2 507 494
2 492 507
2 507 477
2 478 508
2 508 496
2 477 508
2 508 495
2 479 509
2 509 497
2 495 509
2 509 467

CELL_TYPES 206
9 9 9 9 9 9 9 9 9 9 9 9 9 9 9 9 9 9 9 9 9 9 9 9 9 9 9 9 9 9 9 9 9 9 9 9 9 9 9 9 9 9 9 9 9 9 9 9 9 9 9 9 9 9 9 9 9 9 9 9 9 9 9 9 9 9 9 9 9 9 9 9 9 9 9 9 9 9 9 9 9 9 9 9 9 9 9 9 
3 3 3 3 3 3 3 3 3 3 3 3 3 3 3 3 3 3 3 3 3 3 3 3 3 3 3 3 3 3 3 3 3 3 3 3 3 3 3 3 3 3 3 3 3 3 3 3 3 3 3 3 3 3 3 3 3 3 3 3 3 3 3 3 3 3 3 3 3 3 3 3 3 3 3 3 3 3 3 3 3 3 3 3 3 3 3 3 3 3 3 3 3 3 3 3 3 3 3 3 3 3 3 3 3 3 3 3 3 3 3 3 3 3 3 3 3 3 


CELL_DATA 206
SCALARS MaterialID int 1
LOOKUP_TABLE default
0 0 0 0 0 0 0 0 0 0 0 0 0 0 0 0 0 0 0 0 0 0 0 0 0 0 0 0 0 0 0 0 0 0 0 0 0 0 0 0 0 0 0 0 0 0 0 0 0 0 0 0 0 0 0 0 0 0 0 0 0 0 0 0 0 0 0 0 0 0 0 0 0 0 0 0 0 0 0 0 0 0 0 0 0 0 0 0 
0 -1 0 -1 -1 -1 0 0 0 0 0 -1 -1 -1 -1 0 -1 -1 -1 -1 -1 -1 -1 -1 -1 -1 -1 -1 -1 -1 -1 -1 -1 -1 -1 -1 -1 -1 0 0 -1 -1 -1 -1 0 0 -1 -1 -1 -1 -1 -1 -1 -1 -1 -1 -1 -1 -1 -1 -1 -1 -1 -1 -1 -1 -1 -1 -1 -1 -1 -1 -1 -1 -1 -1 -1 -1 -1 -1 -1 -1 -1 -1 -1 -1 -1 -1 -1 -1 -1 -1 -1 -1 -1 -1 -1 -1 -1 -1 -1 -1 -1 -1 -1 -1 -1 -1 -1 -1 -1 -1 -1 -1 -1 -1 -1 -1 


SCALARS ManifoldID int 1
LOOKUP_TABLE default
1 1 1 1 1 1 1 1 1 1 1 1 1 1 1 1 -1 -1 -1 -1 -1 -1 -1 -1 -1 -1 -1 -1 1 1 1 1 1 1 1 1 1 1 1 1 1 1 1 1 1 1 1 1 1 1 1 1 1 1 1 1 -1 -1 -1 -1 -1 -1 -1 -1 -1 -1 -1 -1 -1 -1 -1 -1 1 1 1 1 1 1 1 1 1 1 1 1 1 1 1 1 
0 1 0 1 1 1 0 0 0 0 0 1 1 1 1 0 1 1 1 1 1 1 1 1 1 1 1 1 1 1 1 1 1 1 1 1 1 1 0 0 1 1 1 1 0 0 1 1 1 1 1 1 1 1 1 1 1 1 1 1 1 1 1 1 1 1 1 1 1 1 1 1 1 1 1 1 1 1 1 1 1 1 1 1 1 1 1 1 1 1 1 1 1 1 1 1 1 1 1 1 1 1 1 1 1 1 1 1 1 1 1 1 1 1 1 1 1 1 


# vtk DataFile Version 3.0
Triangulation generated with deal.II
ASCII
DATASET UNSTRUCTURED_GRID
POINTS 476 double
-0.707107 -0.707107 0
0.707107 -0.707107 0
-0.292893 -0.292893 0
0.292893 -0.292893 0
-0.292893 0.292893 0
0.292893 0.292893 0
-0.707107 0.707107 0
0.707107 0.707107 0
0.5 -0.5 0
1 -1.11022e-16 0
0.292893 0 0
0.5 0.5 0
0.646447 -5.55112e-17 0
-1.11022e-16 -1 0
-0.5 -0.5 0
0 -0.292893 0
-0.292893 0 0
0 0.292893 0
-0.5 0.5 0
-1.11022e-16 1 0
0.603553 -0.603553 0
0.396447 -0.396447 0
0.92388 -0.382683 0
0.92388 0.382683 0
0.292893 -0.146447 0
0.292893 0.146447 0
0.603553 0.603553 0
0.396447 0.396447 0
0.823223 -8.32667e-17 0
0.46967 -2.77556e-17 0
0.573223 -0.25 0
0.573223 0.25 0
-5.55112e-17 -0.646447 0
0 0 0
-5.55112e-17 0.646447 0
0.748551 -0.316342 0
0.748551 0.316342 0
0.433058 -0.198223 0
0.433058 0.198223 0
0.382683 -0.92388 0
0.146447 -0.292893 0
0.146447 0.292893 0
0.382683 0.92388 0
0.65533 -0.65533 0
0.551777 -0.551777 0
0.448223 -0.448223 0
0.34467 -0.34467 0
0.83147 -0.55557 0
0.980785 -0.19509 0
0.980785 0.19509 0
0.83147 0.55557 0
0.292893 -0.21967 0
0.292893 -0.0732233 0
0.292893 0.0732233 0
0.292893 0.21967 0
0.65533 0.65533 0
0.551777 0.551777 0
0.448223 0.448223 0
0.34467 0.34467 0
0.911612 -9.71445e-17 0
0.734835 -6.93889e-17 0
0.558058 -4.16334e-17 0
0.381282 -1.38778e-17 0
0.536612 -0.375 0
0.609835 -0.125 0
0.609835 0.125 0
0.536612 0.375 0
-8.32667e-17 -0.823223 0
-2.77556e-17 -0.46967 0
0.25 -0.573223 0
0 -0.146447 0
0 0.146447 0
0.146447 0 0
0.25 0.573223 0
-8.32667e-17 0.823223 0
-2.77556e-17 0.46967 0
0.836215 -0.349513 0
0.660887 -0.283171 0
0.676052 -0.459948 0
0.785887 -0.158171 0
0.836215 0.349513 0
0.660887 0.283171 0
0.785887 0.158171 0
0.676052 0.459948 0
0.503141 -0.224112 0
0.362976 -0.172335 0
0.414752 -0.297335 0
0.451364 -0.0991117 0
0.503141 0.224112 0
0.362976 0.172335 0
0.451364 0.0991117 0
0.414752 0.297335 0
0.316342 -0.748551 0
0.198223 -0.433058 0
0.146447 -0.146447 0
0.146447 0.146447 0
0.316342 0.748551 0
0.198223 0.433058 0
0.753761 -0.507759 0
0.883336 -0.176631 0
0.606332 -0.417474 0
0.697861 -0.141585 0
0.883336 0.176631 0
0.753761 0.507759 0
0.697861 0.141585 0
0.606332 0.417474 0